unknown system                          
           1
     4.873430    0.000000    0.000000
    -2.436715    4.220514    0.000000
     0.000000    0.000000    5.374190
   Si   O 
   3   6
Direct configuration=     1
   0.45331252  0.99149845  0.66307113
   0.99397289  0.45693182  0.33069639
   0.54749864  0.54105032  0.00011377
   0.12239484  0.71761505  0.56331646
   0.27662447  0.40728807  0.22353398
   0.59577522  0.88230234  0.90394515
   0.40023684  0.26643507  0.78261043
   0.89231187  0.62082714  0.10346818
   0.72181237  0.12399718  0.43386605
Direct configuration=     2
   0.45284729  0.99245225  0.66345275
   0.99409185  0.45695037  0.33081546
   0.54792401  0.54081297  0.00031941
   0.12294745  0.71667289  0.56372939
   0.27549394  0.40672248  0.22300629
   0.59613278  0.88236635  0.90308375
   0.40138893  0.26777878  0.78267234
   0.89193699  0.61945615  0.10347205
   0.72111668  0.12417806  0.43353660
Direct configuration=     3
   0.45249683  0.99347225  0.66388849
   0.99429305  0.45706171  0.33090971
   0.54830769  0.54061362  0.00053917
   0.12339060  0.71563081  0.56408758
   0.27440065  0.40611886  0.22247305
   0.59649837  0.88234875  0.90212255
   0.40254205  0.26918483  0.78269019
   0.89148800  0.61800765  0.10352799
   0.72028564  0.12424789  0.43328302
Direct configuration=     4
   0.45226229  0.99455096  0.66437327
   0.99457243  0.45725912  0.33098162
   0.54864538  0.54046169  0.00077609
   0.12372901  0.71449882  0.56439802
   0.27335710  0.40547664  0.22192845
   0.59687551  0.88224405  0.90106884
   0.40368757  0.27064580  0.78265734
   0.89096767  0.61649115  0.10363344
   0.71931698  0.12420900  0.43310524
Direct configuration=     5
   0.45214206  0.99567854  0.66490116
   0.99492411  0.45753316  0.33103449
   0.54893278  0.54036589  0.00103280
   0.12397159  0.71329186  0.56466995
   0.27237486  0.40479507  0.22136758
   0.59726817  0.88204783  0.89993076
   0.40481648  0.27215350  0.78256725
   0.89037860  0.61491709  0.10378501
   0.71821337  0.12406798  0.43300077
Direct configuration=     6
   0.45213202  0.99684289  0.66546556
   0.99534053  0.45787165  0.33107243
   0.54916563  0.54033413  0.00131131
   0.12413095  0.71202935  0.56491461
   0.27146410  0.40407336  0.22078655
   0.59768066  0.88175695  0.89871742
   0.40591922  0.27369883  0.78241352
   0.88972346  0.61329695  0.10397838
   0.71698264  0.12383567  0.43296466
Direct configuration=     7
   0.45222577  0.99802989  0.66605927
   0.99581255  0.45826006  0.33110018
   0.54933990  0.54037328  0.00161275
   0.12422273  0.71073461  0.56514487
   0.27063301  0.40331060  0.22018300
   0.59811744  0.88136998  0.89743885
   0.40698611  0.27527194  0.78219043
   0.88900507  0.61164319  0.10420852
   0.71563767  0.12352678  0.43298950
Direct configuration=     8
   0.45241508  0.99922381  0.66667472
   0.99632969  0.45868182  0.33112307
   0.54945201  0.54048900  0.00193714
   0.12426468  0.70943384  0.56537463
   0.26988746  0.40250593  0.21955630
   0.59858306  0.88088731  0.89610602
   0.40800735  0.27686233  0.78189299
   0.88822660  0.60996910  0.10446975
   0.71419606  0.12315941  0.43306561
Direct configuration=     9
   0.45269036  1.00040786  0.66730417
   0.99688023  0.45911888  0.33114704
   0.54949909  0.54068570  0.00228299
   0.12427578  0.70815498  0.56561820
   0.26923054  0.40165841  0.21890775
   0.59908188  0.88031143  0.89473072
   0.40897328  0.27845914  0.78151747
   0.88739175  0.60828859  0.10475597
   0.71267977  0.12275455  0.43318114
Direct configuration=    10
   0.45304171  1.00156458  0.66794000
   0.99745060  0.45955185  0.33117952
   0.54947959  0.54096723  0.00264617
   0.12427491  0.70692627  0.56588914
   0.26866263  0.40076686  0.21824088
   0.59961743  0.87964610  0.89332570
   0.40987417  0.28005166  0.78106184
   0.88650517  0.60661547  0.10506095
   0.71111500  0.12233616  0.43332215
Direct configuration=    11
   0.45346288  1.00267540  0.66857464
   0.99802078  0.45995760  0.33123373
   0.54939482  0.54134154  0.00301552
   0.12427886  0.70577558  0.56619856
   0.26818321  0.39982865  0.21756170
   0.60018935  0.87889112  0.89190556
   0.41069783  0.28163087  0.78052749
   0.88557432  0.60496184  0.10537855
   0.70953442  0.12193539  0.43347133
Direct configuration=    12
   0.45394304  1.00372408  0.66920037
   0.99857707  0.46031718  0.33131660
   0.54924563  0.54180813  0.00338536
   0.12430547  0.70472943  0.56655859
   0.26778591  0.39884281  0.21687755
   0.60080075  0.87805619  0.89048282
   0.41143635  0.28318614  0.77991545
   0.88460433  0.60334114  0.10570254
   0.70796776  0.12157678  0.43361324
Direct configuration=    13
   0.45447062  1.00469628  0.66981009
   0.99910771  0.46061380  0.33143369
   0.54903378  0.54236299  0.00375005
   0.12437093  0.70381144  0.56697984
   0.26746056  0.39780900  0.21619740
   0.60145529  0.87715541  0.88906901
   0.41208362  0.28470669  0.77922782
   0.88360031  0.60176620  0.10602739
   0.70644420  0.12128261  0.43373280
Direct configuration=    14
   0.45503405  1.00558002  0.67039756
   0.99960275  0.46083312  0.33158944
   0.54876179  0.54299905  0.00410379
   0.12448916  0.70304135  0.56747065
   0.26719363  0.39672723  0.21553172
   0.60215691  0.87620666  0.88767437
   0.41263543  0.28618173  0.77846783
   0.88256778  0.60024916  0.10634842
   0.70499150  0.12107253  0.43381575
Direct configuration=    15
   0.45562209  1.00636595  0.67095754
   1.00005404  0.46096358  0.33178726
   0.54843293  0.54370629  0.00444061
   0.12467139  0.70243448  0.56803682
   0.26696865  0.39559789  0.21489222
   0.60290992  0.87523153  0.88630747
   0.41308935  0.28760056  0.77763966
   0.88151258  0.59880101  0.10666220
   0.70363541  0.12096322  0.43384899
Direct configuration=    16
   0.45622420  1.00704756  0.67148579
   1.00045533  0.46099670  0.33202950
   0.54805102  0.54447200  0.00475459
   0.12492578  0.70200117  0.56868121
   0.26676696  0.39442184  0.21429135
   0.60371889  0.87425495  0.88497516
   0.41344472  0.28895262  0.77674843
   0.88044108  0.59743139  0.10696672
   0.70239894  0.12096808  0.43382088
Direct configuration=    17
   0.45683091  1.00762140  0.67197901
   1.00080215  0.46092731  0.33231758
   0.54762029  0.54528099  0.00504001
   0.12525714  0.70174652  0.56940346
   0.26656889  0.39320048  0.21374178
   0.60458871  0.87330463  0.88368250
   0.41370244  0.29022768  0.77580002
   0.87936014  0.59614866  0.10726151
   0.70130140  0.12109656  0.43372209
Direct configuration=    18
   0.45743379  1.00808695  0.67243478
   1.00109189  0.46075362  0.33265183
   0.54714500  0.54611580  0.00529164
   0.12566705  0.70167048  0.57020016
   0.26635409  0.39193583  0.21325606
   0.60552459  0.87241072  0.88243272
   0.41386502  0.29141580  0.77480096
   0.87827704  0.59495982  0.10754771
   0.70035839  0.12135426  0.43354532
Direct configuration=    19
   0.45802569  1.00844675  0.67285146
   1.00132390  0.46047731  0.33303140
   0.54662920  0.54695687  0.00550505
   0.12615392  0.70176792  0.57106498
   0.26610261  0.39063061  0.21284594
   0.60653227  0.87160508  0.88122737
   0.41393646  0.29250749  0.77375819
   0.87719942  0.59387071  0.10782800
   0.69958065  0.12174219  0.43328620
Direct configuration=    20
   0.45860039  1.00870676  0.67322856
   1.00150027  0.46010380  0.33345325
   0.54607590  0.54778213  0.00567724
   0.12671320  0.70202881  0.57198909
   0.26579528  0.38928858  0.21252207
   0.60761831  0.87092121  0.88006624
   0.41392284  0.29349347  0.77267864
   0.87613513  0.59288657  0.10810665
   0.69897343  0.12225599  0.43294332
Direct configuration=    21
   0.45915291  1.00887629  0.67356655
   1.00162593  0.45964188  0.33391209
   0.54548667  0.54856722  0.00580698
   0.12733741  0.70243851  0.57296156
   0.26541386  0.38791480  0.21229385
   0.60878997  0.87039350  0.87894738
   0.41383222  0.29436490  0.77156921
   0.87509226  0.59201226  0.10838929
   0.69853635  0.12288581  0.43251830
Direct configuration=    22
   0.45968121  1.00896535  0.67386415
   1.00170429  0.45910174  0.33440466
   0.54486390  0.54929023  0.00589258
   0.12801650  0.70297950  0.57396931
   0.26494493  0.38651449  0.21216786
   0.61005314  0.87005186  0.87786935
   0.41367165  0.29511561  0.77043836
   0.87407871  0.59125082  0.10868202
   0.69826542  0.12362021  0.43201544
Direct configuration=    23
   0.46018547  1.00898454  0.67411899
   1.00173820  0.45849545  0.33492902
   0.54421043  0.54993157  0.00593206
   0.12873804  0.70363142  0.57499740
   0.26437956  0.38509343  0.21214785
   0.61141298  0.86992174  0.87683143
   0.41344767  0.29574183  0.76929568
   0.87310177  0.59060371  0.10899130
   0.69815271  0.12444514  0.43144163
Direct configuration=    24
   0.46066752  1.00894534  0.67432804
   1.00173098  0.45783712  0.33548334
   0.54352890  0.55047355  0.00592381
   0.12948781  0.70437174  0.57602986
   0.26371320  0.38365812  0.21223464
   0.61287409  0.87002384  0.87583389
   0.41316659  0.29624169  0.76815126
   0.87216803  0.59007154  0.10932386
   0.69818583  0.12534339  0.43080632
Direct configuration=    25
   0.46113055  1.00885985  0.67448775
   1.00168672  0.45714276  0.33606568
   0.54282162  0.55090068  0.00586649
   0.13025016  0.70517626  0.57705006
   0.26294557  0.38221589  0.21242628
   0.61444039  0.87037333  0.87487825
   0.41283460  0.29661515  0.76701550
   0.87128326  0.58965435  0.10968640
   0.69834800  0.12629445  0.43012142
Direct configuration=    26
   0.46157889  1.00874068  0.67459419
   1.00161031  0.45642999  0.33667381
   0.54209055  0.55119999  0.00575902
   0.13100838  0.70601970  0.57804126
   0.26208052  0.38077507  0.21271798
   0.61611530  0.87097952  0.87396772
   0.41245779  0.29686386  0.76589901
   0.87045219  0.58935176  0.11008551
   0.69861819  0.12727446  0.42940078
Direct configuration=    27
   0.46201777  1.00860059  0.67464320
   1.00150754  0.45571781  0.33730513
   0.54133742  0.55136126  0.00560031
   0.13174506  0.70687627  0.57898700
   0.26112571  0.37934482  0.21310245
   0.61790120  0.87184531  0.87310741
   0.41204212  0.29699098  0.76481249
   0.86967860  0.58916322  0.11052749
   0.69897168  0.12825670  0.42865983
Direct configuration=    28
   0.46245305  1.00845225  0.67463055
   1.00138495  0.45502624  0.33795658
   0.54056380  0.55137717  0.00538926
   0.13244260  0.70772030  0.57987145
   0.26009233  0.37793508  0.21357004
   0.61979957  0.87296721  0.87230442
   0.41159331  0.29700112  0.76376664
   0.86896507  0.58908809  0.11101815
   0.69938056  0.12921186  0.42791511
Direct configuration=    29
   0.46289090  1.00830788  0.67455209
   1.00124966  0.45437583  0.33862473
   0.53977132  0.55124341  0.00512463
   0.13308374  0.70852698  0.58068000
   0.25899440  0.37655637  0.21410928
   0.62181038  0.87433541  0.87156773
   0.41111685  0.29689993  0.76277204
   0.86831315  0.58912579  0.11156270
   0.69981490  0.13010907  0.42718351
Direct configuration=    30
   0.46333766  1.00817896  0.67440388
   1.00110919  0.45378745  0.33930574
   0.53896173  0.55095851  0.00480503
   0.13365171  0.70927238  0.58139900
   0.25784849  0.37521965  0.21470699
   0.62393240  0.87593461  0.87090785
   0.41061797  0.29669421  0.76183914
   0.86772330  0.58927581  0.11216585
   0.70024299  0.13091608  0.42648217
Direct configuration=    31
   0.46379944  1.00807570  0.67418248
   1.00097094  0.45328136  0.33999542
   0.53813712  0.55052366  0.00442903
   0.13413118  0.70993470  0.58201674
   0.25667267  0.37393620  0.21534904
   0.62616237  0.87774475  0.87033643
   0.41010155  0.29639110  0.76097810
   0.86719500  0.58953771  0.11283155
   0.70063364  0.13160116  0.42582715
Direct configuration=    32
   0.46428193  1.00800686  0.67388497
   1.00084186  0.45287696  0.34068933
   0.53730003  0.54994262  0.00399527
   0.13450843  0.71049426  0.58252315
   0.25548654  0.37271740  0.21602017
   0.62849551  0.87974152  0.86986584
   0.40957222  0.29599858  0.76019879
   0.86672666  0.58991121  0.11356319
   0.70095607  0.13213325  0.42523347
Direct configuration=    33
   0.46479008  1.00797917  0.67350921
   1.00072790  0.45259189  0.34138273
   0.53645363  0.54922141  0.00350268
   0.13477204  0.71093434  0.58291034
   0.25431026  0.37157469  0.21670472
   0.63092447  0.88189731  0.86950844
   0.40903415  0.29552470  0.75951063
   0.86631583  0.59039605  0.11436339
   0.70118244  0.13248405  0.42471417
Direct configuration=    34
   0.46532786  1.00799714  0.67305404
   1.00063344  0.45244135  0.34207062
   0.53560186  0.54836820  0.00295082
   0.13491342  0.71124161  0.58317282
   0.25316439  0.37051953  0.21738658
   0.63343954  0.88418174  0.86927613
   0.40849120  0.29497779  0.75892251
   0.86595912  0.59099198  0.11523398
   0.70128847  0.13262888  0.42427988
Direct configuration=    35
   0.46589792  1.00806252  0.67251961
   1.00056076  0.45243723  0.34274766
   0.53474968  0.54739331  0.00234017
   0.13492731  0.71140680  0.58330781
   0.25206916  0.36956329  0.21804964
   0.63602755  0.88656226  0.86917952
   0.40794682  0.29436586  0.75844268
   0.86565241  0.59169842  0.11617573
   0.70125569  0.13254858  0.42393805
Direct configuration=    36
   0.46650124  1.00817395  0.67190776
   1.00050954  0.45258730  0.34340799
   0.53390325  0.54630927  0.00167266
   0.13481232  0.71142521  0.58331556
   0.25104389  0.36871739  0.21867813
   0.63867145  0.88900486  0.86922730
   0.40740403  0.29369646  0.75807845
   0.86539097  0.59251414  0.11718817
   0.70107289  0.13223096  0.42369242
Direct configuration=    37
   0.46713685  1.00832671  0.67122233
   1.00047659  0.45289452  0.34404511
   0.53307031  0.54513121  0.00095204
   0.13457145  0.71129740  0.58319984
   0.25010700  0.36799299  0.21925648
   0.64134972  0.89147340  0.86942568
   0.40686543  0.29297685  0.75783587
   0.86516915  0.59343686  0.11826928
   0.70073705  0.13167198  0.42354259
Direct configuration=    38
   0.46780147  1.00851240  0.67046958
   1.00045561  0.45335633  0.34465167
   0.53226031  0.54387709  0.00018444
   0.13421246  0.71102958  0.58296819
   0.24927507  0.36740093  0.21976995
   0.64403590  0.89393055  0.86977761
   0.40633308  0.29221361  0.75771918
   0.86498063  0.59446257  0.11941517
   0.70025467  0.13087703  0.42348363
Direct configuration=    39
   0.46848931  1.00871902  0.66965851
   1.00043742  0.45396431  0.34521938
   0.53148461  0.54256807 -0.00062133
   0.13374832  0.71063433  0.58263240
   0.24856273  0.36695119  0.22020472
   0.64669830  0.89633725  0.87028235
   0.40580851  0.29141279  0.75773026
   0.86481802  0.59558501  0.12061973
   0.69964209  0.12986159  0.42350584
Direct configuration=    40
   0.46919192  1.00893117  0.66880110
   1.00041036  0.45470410  0.34573900
   0.53075633  0.54122844 -0.00145366
   0.13319705  0.71013037  0.58220851
   0.24798189  0.36665247  0.22054849
   0.64930036  0.89865386  0.87093476
   0.40529266  0.29057956  0.75786798
   0.86467288  0.59679508  0.12187480
   0.69892568  0.12865131  0.42359468
Direct configuration=    41
   0.46989833  1.00913107  0.66791250
   1.00036132  0.45555578  0.34620047
   0.53008961  0.53988497 -0.00229854
   0.13258125  0.70954227  0.58171668
   0.24754106  0.36651179  0.22079103
   0.65180188  0.90084096  0.87172526
   0.40478616  0.28971801  0.75812785
   0.86453586  0.59808085  0.12317026
   0.69814069  0.12728114  0.42373090
Direct configuration=    42
   0.47059566  1.00929983  0.66701086
   1.00027689  0.45649454  0.34659308
   0.52949851  0.53856577 -0.00314018
   0.13192670  0.70889893  0.58118036
   0.24724450  0.36653419  0.22092484
   0.65416116  0.90286122  0.87263987
   0.40428959  0.28883052  0.75850178
   0.86439728  0.59942831  0.12449468
   0.69732942  0.12579344  0.42389129
Direct configuration=    43
   0.47126992  1.00941881  0.66611669
   1.00014456  0.45749199  0.34690577
   0.52899591  0.53729892 -0.00396187
   0.13126074  0.70823194  0.58062531
   0.24709175  0.36672272  0.22094562
   0.65633734  0.90468093  0.87366097
   0.40380364  0.28791755  0.75897838
   0.86424821  0.60082242  0.12583555
   0.69653794  0.12423507  0.42405000
Direct configuration=    44
   0.47190711  1.00947065  0.66525162
   0.99995352  0.45851789  0.34712761
   0.52859290  0.53611131 -0.00474670
   0.13061066  0.70757369  0.58007825
   0.24707762  0.36707837  0.22085229
   0.65829269  0.90627142  0.87476829
   0.40332895  0.28697743  0.75954346
   0.86408083  0.60224823  0.12718004
   0.69581314  0.12265435  0.42418019
Direct configuration=    45
   0.47249401  1.00943995  0.66443710
   0.99969529  0.45954202  0.34724846
   0.52829828  0.53502746 -0.00547855
   0.13000226  0.70695557  0.57956548
   0.24719285  0.36760017  0.22064672
   0.65999432  0.90761001  0.87594016
   0.40286612  0.28600640  0.76018100
   0.86388865  0.60369192  0.12851576
   0.69519995  0.12109812  0.42425563
Direct configuration=    46
   0.47301929  1.00931395  0.66369298
   0.99936418  0.46053614  0.34725946
   0.52811848  0.53406878 -0.00614269
   0.12945826  0.70640576  0.57911111
   0.24742505  0.36828582  0.22033308
   0.66141528  0.90868024  0.87715473
   0.40241566  0.28499927  0.76087418
   0.86366667  0.60514148  0.12983129
   0.69473799  0.11960858  0.42425300
Direct configuration=    47
   0.47347408  1.00908278  0.66303658
   0.99895732  0.46147517  0.34715349
   0.52805742  0.53325302 -0.00672646
   0.12899759  0.70594808  0.57873616
   0.24775970  0.36913194  0.21991731
   0.66253462  0.90947145  0.87839089
   0.40197820  0.28394960  0.76160639
   0.86341143  0.60658749  0.13111668
   0.69446042  0.11822199  0.42415285
Direct configuration=    48
   0.47385249  1.00873958  0.66248185
   0.99847471  0.46233813  0.34692549
   0.52811672  0.53259413 -0.00721947
   0.12863448  0.70560066  0.57845733
   0.24818112  0.37013481  0.21940635
   0.66333728  0.90997814  0.87962888
   0.40155474  0.28285098  0.76236241
   0.86312106  0.60802309  0.13236341
   0.69439209  0.11696710  0.42394123
Direct configuration=    49
   0.47415182  1.00828044  0.66203910
   0.99791911  0.46310851  0.34657275
   0.52829586  0.53210238 -0.00761378
   0.12837847  0.70537545  0.57828661
   0.24867321  0.37129040  0.21880768
   0.66381293  0.91019889  0.88085047
   0.40114683  0.28169749  0.76312890
   0.86279521  0.60944405  0.13356435
   0.69454951  0.11586533  0.42361006
Direct configuration=    50
   0.47437264  1.00770445  0.66171480
   0.99729600  0.46377425  0.34609519
   0.52859218  0.53178451 -0.00790384
   0.12823406  0.70527778  0.57823072
   0.24921991  0.37259456  0.21812902
   0.66395557  0.91013575  0.88203881
   0.40075702  0.28048495  0.76389502
   0.86243524  0.61084819  0.13471331
   0.69494037  0.11493081  0.42315788
Direct configuration=    51
   0.47451867  1.00701367  0.66151168
   0.99661356  0.46432756  0.34549558
   0.52900088  0.53164375 -0.00808657
   0.12820090  0.70530631  0.57829105
   0.24980536  0.37404247  0.21737833
   0.66376302  0.90979390  0.88317810
   0.40038902  0.27921177  0.76465247
   0.86204422  0.61223494  0.13580477
   0.69556382  0.11417104  0.42258980
Direct configuration=    52
   0.47459662  1.00621338  0.66142884
   0.99588282  0.46476466  0.34477992
   0.52951473  0.53167966 -0.00816133
   0.12827372  0.70545300  0.57846349
   0.25041397  0.37562815  0.21656396
   0.66323693  0.90918166  0.88425323
   0.40004805  0.27788014  0.76539563
   0.86162717  0.61360460  0.13683349
   0.69641040  0.11358737  0.42191756
Direct configuration=    53
   0.47461593  1.00531226  0.66146192
   0.99511756  0.46508559  0.34395774
   0.53012372  0.53188775 -0.00813014
   0.12844240  0.70570328  0.57873854
   0.25103041  0.37734358  0.21569484
   0.66238345  0.90831116  0.88524943
   0.39974087  0.27649686  0.76612142
   0.86119131  0.61495770  0.13779429
   0.69746218  0.11317547  0.42115922
Direct configuration=    54
   0.47458834  1.00432263  0.66160325
   0.99433429  0.46529405  0.34304223
   0.53081472  0.53225905 -0.00799779
   0.12869222  0.70603662  0.57910153
   0.25163962  0.37917772  0.21478089
   0.66121426  0.90719915  0.88615241
   0.39947569  0.27507385  0.76682897
   0.86074612  0.61629441  0.13868211
   0.69869311  0.11292575  0.42033843
Direct configuration=    55
   0.47452729  1.00326046  0.66184211
   0.99355172  0.46539723  0.34205022
   0.53157140  0.53277963 -0.00777199
   0.12900426  0.70642725  0.57953324
   0.25222696  0.38111591  0.21383309
   0.65974762  0.90586787  0.88694867
   0.39926180  0.27362817  0.76751936
   0.86030336  0.61761423  0.13949221
   0.70006963  0.11282361  0.41948346
Direct configuration=    56
   0.47444718  1.00214497  0.66216510
   0.99279001  0.46540563  0.34100168
   0.53237438  0.53343049 -0.00746332
   0.12935630  0.70684562  0.58001077
   0.25277868  0.38313959  0.21286340
   0.65800919  0.90434552  0.88762613
   0.39910894  0.27218139  0.76819518
   0.85987669  0.61891573  0.14022068
   0.70155202  0.11285003  0.41862560
Direct configuration=    57
   0.47436240  1.00099789  0.66255671
   0.99206952  0.46533260  0.33991892
   0.53320202  0.53418795 -0.00708485
   0.12972409  0.70726017  0.58050893
   0.25328247  0.38522651  0.21188446
   0.65603199  0.90266606  0.88817496
   0.39902655  0.27075836  0.76886012
   0.85948102  0.62019661  0.14086499
   0.70309643  0.11298225  0.41779718
Direct configuration=    58
   0.47428626  0.99984211  0.66300002
   0.99140935  0.46519374  0.33882524
   0.53403154  0.53502465 -0.00665157
   0.13008317  0.70763968  0.58100202
   0.25372821  0.38735186  0.21090893
   0.65385551  0.90086802  0.88858854
   0.39902282  0.26938527  0.76951845
   0.85913155  0.62145391  0.14142447
   0.70465768  0.11319506  0.41702928
Direct configuration=    59
   0.47423011  0.99870037  0.66347754
   0.99082610  0.46500609  0.33774347
   0.53484047  0.53591103 -0.00617936
   0.13041026  0.70795512  0.58146523
   0.25410850  0.38948949  0.20994876
   0.65152366  0.89899262  0.88886393
   0.39910429  0.26808774  0.77017484
   0.85884286  0.62268455  0.14190064
   0.70619177  0.11346190  0.41635006
Direct configuration=    60
   0.47420233  0.99759356  0.66397214
   0.99033256  0.46478695  0.33669460
   0.53560807  0.53681717 -0.00568395
   0.13068553  0.70818221  0.58187676
   0.25441907  0.39161382  0.20901436
   0.64908246  0.89708120  0.88900237
   0.39927504  0.26688846  0.77083359
   0.85862777  0.62388563  0.14229713
   0.70765918  0.11375699  0.41578254
Direct configuration=    61
   0.47420807  0.99653967  0.66446773
   0.98993718  0.46455302  0.33569659
   0.53631653  0.53771453 -0.00517992
   0.13089322  0.70830215  0.58221854
   0.25465886  0.39370149  0.20811390
   0.64657716  0.89517274  0.88900905
   0.39953694  0.26580599  0.77149882
   0.85849677  0.62505506  0.14261948
   0.70902648  0.11405627  0.41534413
Direct configuration=    62
   0.47424895  0.99555289  0.66494984
   0.98964381  0.46431937  0.33476385
   0.53695184  0.53857756 -0.00467991
   0.13102290  0.70830279  0.58247732
   0.25482976  0.39573237  0.20725312
   0.64404988  0.89330154  0.88889265
   0.39988946  0.26485356  0.77217380
   0.85845738  0.62619159  0.14287445
   0.71026807  0.11433919  0.41504592
Direct configuration=    63
   0.47432336  0.99464342  0.66540582
   0.98945193  0.46409891  0.33390708
   0.53750417  0.53938469 -0.00419424
   0.13106923  0.70817825  0.58264438
   0.25493631  0.39769028  0.20643505
   0.64153785  0.89149583  0.88866474
   0.40033029  0.26403910  0.77286124
   0.85851406  0.62729491  0.14306952
   0.71136639  0.11458929  0.41489334
Direct configuration=    64
   0.47442681  0.99381761  0.66582497
   0.98935721  0.46390205  0.33313370
   0.53796792  0.54011901 -0.00373085
   0.13103185  0.70792844  0.58271535
   0.25498506  0.39956281  0.20566049
   0.63907249  0.88977689  0.88833891
   0.40085558  0.26336558  0.77356305
   0.85866818  0.62836546  0.14321212
   0.71231162  0.11479463  0.41488675
Direct configuration=    65
   0.47455251  0.99307835  0.66619830
   0.98935193  0.46373657  0.33244848
   0.53834159  0.54076846 -0.00329553
   0.13091475  0.70755827  0.58268958
   0.25498404  0.40134086  0.20492832
   0.63667911  0.88815905  0.88793019
   0.40146039  0.26283174  0.77428033
   0.85891815  0.62940396  0.14330915
   0.71310105  0.11494802  0.41502243
Direct configuration=    66
   0.47469193  0.99242556  0.66651840
   0.98942546  0.46360783  0.33185451
   0.53862760  0.54132588 -0.00289255
   0.13072551  0.70707651  0.58256910
   0.25494244  0.40301778  0.20423602
   0.63437714  0.88664985  0.88745443
   0.40213890  0.26243330  0.77501360
   0.85925964  0.63041102  0.14336666
   0.71373805  0.11504684  0.41529356
Direct configuration=    67
   0.47483530  0.99185651  0.66677914
   0.98956435  0.46351880  0.33135441
   0.53883221  0.54178905 -0.00252563
   0.13047459  0.70649493  0.58235773
   0.25487033  0.40458845  0.20358010
   0.63218051  0.88525053  0.88692802
   0.40288447  0.26216396  0.77576296
   0.85968566  0.63138646  0.14338976
   0.71423150  0.11509310  0.41569089
Direct configuration=    68
   0.47497225  0.99136705  0.66697545
   0.98975390  0.46347018  0.33095046
   0.53896370  0.54215911 -0.00219788
   0.13017397  0.70582712  0.58206081
   0.25477782  0.40604973  0.20295650
   0.63009918  0.88395738  0.88636741
   0.40369032  0.26201572  0.77652808
   0.86018792  0.63232998  0.14338235
   0.71459394  0.11509244  0.41620349
Direct configuration=    69
   0.47509203  0.99095310  0.66710330
   0.98998055  0.46346095  0.33064288
   0.53903019  0.54243821 -0.00191035
   0.12983624  0.70508782  0.58168562
   0.25467361  0.40740062  0.20236113
   0.62814066  0.88276409  0.88578797
   0.40455045  0.26197854  0.77730783
   0.86075824  0.63324230  0.14334708
   0.71483915  0.11505190  0.41681979
Direct configuration=    70
   0.47518382  0.99061040  0.66715958
   0.99023152  0.46348886  0.33043058
   0.53904011  0.54262972 -0.00166268
   0.12947431  0.70429244  0.58124077
   0.25456506  0.40864123  0.20179009
   0.62631021  0.88166245  0.88520400
   0.40545942  0.26204117  0.77810033
   0.86138835  0.63412445  0.14328549
   0.71498194  0.11497992  0.41752786
Direct configuration=    71
   0.47523706  0.99033460  0.66714226
   0.99049475  0.46355070  0.33031159
   0.53900234  0.54273825 -0.00145365
   0.12910123  0.70345674  0.58073563
   0.25445789  0.40977196  0.20124002
   0.62461105  0.88064318  0.88462837
   0.40641213  0.26219153  0.77890292
   0.86206988  0.63497730  0.14319829
   0.71503791  0.11488600  0.41831565
Direct configuration=    72
   0.47524168  0.99012125  0.66705038
   0.99075900  0.46364256  0.33028320
   0.53892610  0.54276942 -0.00128148
   0.12872987  0.70259660  0.58018017
   0.25435616  0.41079318  0.20070837
   0.62304462  0.87969647  0.88407229
   0.40740377  0.26241712  0.77971226
   0.86279450  0.63580144  0.14308555
   0.71502302  0.11478045  0.41917115
Direct configuration=    73
   0.47518817  0.98996587  0.66688417
   0.99101399  0.46376001  0.33034196
   0.53882074  0.54272957 -0.00114397
   0.12837278  0.70172790  0.57958482
   0.25426203  0.41170494  0.20019358
   0.62161099  0.87881272  0.88354510
   0.40842977  0.26270505  0.78052430
   0.86355422  0.63659705  0.14294683
   0.71495343  0.11467412  0.42008240
Direct configuration=    74
   0.47506773  0.98986385  0.66664515
   0.99125034  0.46389818  0.33048376
   0.53869567  0.54262560 -0.00103862
   0.12804208  0.70086647  0.57896035
   0.25417575  0.41250673  0.19969515
   0.62030887  0.87798305  0.88305389
   0.40948572  0.26304226  0.78133433
   0.86434148  0.63736393  0.14278143
   0.71484540  0.11457839  0.42103762
Direct configuration=    75
   0.47487234  0.98981043  0.66633617
   0.99145969  0.46405195  0.33070377
   0.53856031  0.54246489 -0.00096276
   0.12774936  0.70002805  0.57831785
   0.25409576  0.41319754  0.19921374
   0.61913585  0.87719956  0.88260361
   0.41056728  0.26341557  0.78213697
   0.86514922  0.63810139  0.14258847
   0.71471494  0.11450470  0.42202514
Direct configuration=    76
   0.47459476  0.98980064  0.66596151
   0.99163461  0.46421590  0.33099642
   0.53842391  0.54225506 -0.00091350
   0.12750572  0.69922834  0.57766871
   0.25401859  0.41377553  0.19875113
   0.61808848  0.87645585  0.88219664
   0.41167018  0.26381171  0.78292623
   0.86597107  0.63880828  0.14236703
   0.71457799  0.11446478  0.42303350
Direct configuration=    77
   0.47422860  0.98982931  0.66552685
   0.99176868  0.46438454  0.33135534
   0.53829559  0.54200402 -0.00088779
   0.12732156  0.69848294  0.57702454
   0.25393914  0.41423825  0.19831027
   0.61716246  0.87574704  0.88183304
   0.41279011  0.26421745  0.78369553
   0.86680133  0.63948298  0.14211627
   0.71445005  0.11447016  0.42405142
Direct configuration=    78
   0.47376835  0.98989101  0.66503922
   0.99185635  0.46455221  0.33177339
   0.53818417  0.54171979 -0.00088244
   0.12720668  0.69780734  0.57639716
   0.25385076  0.41458244  0.19789515
   0.61635268  0.87506986  0.88151044
   0.41392274  0.26461963  0.78443774
   0.86763508  0.64012343  0.14183545
   0.71434630  0.11453241  0.42506787
Direct configuration=    79
   0.47320934  0.98998009  0.66450689
   0.99189300  0.46471331  0.33224266
   0.53809813  0.54141048 -0.00089404
   0.12717001  0.69721681  0.57579843
   0.25374560  0.41480420  0.19751067
   0.61565343  0.87442266  0.88122421
   0.41506364  0.26500539  0.78514533
   0.86846818  0.64072709  0.14152402
   0.71428128  0.11466275  0.42607221
Direct configuration=    80
   0.47254792  0.99009082  0.66393917
   0.99187484  0.46486227  0.33275451
   0.53804557  0.54108426 -0.00091903
   0.12721954  0.69672626  0.57524014
   0.25361488  0.41489888  0.19716257
   0.61505847  0.87380520  0.88096769
   0.41620832  0.26536234  0.78581045
   0.86929732  0.64129103  0.14118166
   0.71426876  0.11487197  0.42705430
Direct configuration=    81
   0.47178141  0.99021738  0.66334623
   0.99179889  0.46499373  0.33329971
   0.53803403  0.54074927 -0.00095364
   0.12736204  0.69635004  0.57473383